Cell info:
========================================================================
number-of-unit-cells: 1 1 1
unit-cell-vector-a:    28.377000000000     0.000000000000     0.000000000000
unit-cell-vector-b:    -2.014062563199    28.305435537923     0.000000000000
unit-cell-vector-c:    -2.014062563199    -2.162464565591    28.222711209132

cell-vector-a:    28.377000000000     0.000000000000     0.000000000000
cell-vector-b:    -2.014062563199    28.305435537923     0.000000000000
cell-vector-c:    -2.014062563199    -2.162464565591    28.222711209132

cell-lengths:    28.377000000000    28.377000000000    28.377000000000
cell-angles:    94.070000000000    94.070000000000    94.070000000000


Maximum changes for MC-moves:
========================================================================
Maximum-volume-change: 0.000500
Maximum-Gibbs-volume-change: 0.000500
Maximum-box-shape-change: 0.100000 0.100000 0.100000, 0.100000 0.100000 0.100000, 0.100000 0.100000 0.100000


Acceptance targets for MC-moves:
========================================================================
Target-volume-change: 0.500000
Target-box-shape-change: 0.500000
Target-Gibbs-volume-change: 0.500000


Components: 1 (Adsorbates 1, Cations 0)
========================================================================
Component 0 (CO2)
	Fractional-molecule-id component 0: -1
	Lambda-factors component 0:  0.000000 0.000000 0.000000
	Number-of-biasing-factors component 0: 21
	Biasing-factors component 0:  0.000000 0.000000 0.000000 0.000000 0.000000 0.000000 0.000000 0.000000 0.000000 0.000000 0.000000 0.000000 0.000000 0.000000 0.000000 0.000000 0.000000 0.000000 0.000000 0.000000 0.000000
	Maximum-CF-Lambda-change component 0: 0.500000
	Maximum-CBCF-Lambda-change component 0: 0.500000

	Maximum-translation-change component 0: 0.246897,0.246897,0.246897
	Maximum-translation-in-plane-change component 0: 0.000000,0.000000,0.000000
	Maximum-rotation-change component 0: 0.123456 0.123456 0.123456

Reactions: 0

Component: 0     Adsorbate    1 molecules of CO2
------------------------------------------------------------------------
Adsorbate-atom-position: 0 0    14.901841423007    23.433903291107     4.454129422603
Adsorbate-atom-position: 0 1    14.148462432033    23.671252375058     3.619691582913
Adsorbate-atom-position: 0 2    13.395083441058    23.908601459010     2.785253743223
Adsorbate-atom-velocity: 0 0     0.000000000000     0.000000000000     0.000000000000
Adsorbate-atom-velocity: 0 1     0.000000000000     0.000000000000     0.000000000000
Adsorbate-atom-velocity: 0 2     0.000000000000     0.000000000000     0.000000000000
Adsorbate-atom-force:    0 0     0.000000000000     0.000000000000     0.000000000000
Adsorbate-atom-force:    0 1     0.000000000000     0.000000000000     0.000000000000
Adsorbate-atom-force:    0 2     0.000000000000     0.000000000000     0.000000000000
Adsorbate-atom-charge:   0 0    -0.325600000000
Adsorbate-atom-charge:   0 1     0.651200000000
Adsorbate-atom-charge:   0 2    -0.325600000000
Adsorbate-atom-scaling:  0 0     1.000000000000
Adsorbate-atom-scaling:  0 1     1.000000000000
Adsorbate-atom-scaling:  0 2     1.000000000000
Adsorbate-atom-fixed:    0 0       0 0 0
Adsorbate-atom-fixed:    0 1       0 0 0
Adsorbate-atom-fixed:    0 2       0 0 0



